<?xml version="1.0"?>
<VTKFile type="UnstructuredGrid" version="0.1" byte_order="LittleEndian">
  <UnstructuredGrid>
    <Piece NumberOfPoints="16" NumberOfCells="9">
      <Points>
        <DataArray type="Float64" NumberOfComponents="3" format="ascii">
          3.60000000e+01 4.42655983e+01 5.00000007e-02 
3.60000000e+01 4.42151985e+01 5.00000007e-02 
3.60000000e+01 4.41647987e+01 5.00000007e-02 
3.60000000e+01 4.41143990e+01 5.00000007e-02 
3.60000000e+01 4.42655983e+01 3.33333351e-02 
3.60000000e+01 4.42151985e+01 3.33333351e-02 
3.60000000e+01 4.41647987e+01 3.33333351e-02 
3.60000000e+01 4.41143990e+01 3.33333351e-02 
3.60000000e+01 4.42655983e+01 1.66666675e-02 
3.60000000e+01 4.42151985e+01 1.66666675e-02 
3.60000000e+01 4.41647987e+01 1.66666675e-02 
3.60000000e+01 4.41143990e+01 1.66666675e-02 
3.60000000e+01 4.42655983e+01 0.00000000e+00 
3.60000000e+01 4.42151985e+01 0.00000000e+00 
3.60000000e+01 4.41647987e+01 0.00000000e+00 
3.60000000e+01 4.41143990e+01 0.00000000e+00 

        </DataArray>
      </Points>
      <Cells>
        <DataArray type="Int32" Name="connectivity" format="ascii">
0 1 5 4
4 5 9 8
8 9 13 12
1 2 6 5
5 6 10 9
9 10 14 13
2 3 7 6
6 7 11 10
10 11 15 14

        </DataArray>
        <DataArray type="Int32" Name="offsets" format="ascii">
4 8 12 16 20 24 28 32 36 
        </DataArray>
        <DataArray type="UInt8" Name="types" format="ascii">
9 9 9 9 9 9 9 9 9 
        </DataArray>
      </Cells>
      <PointData>
        <DataArray type="Float64" Name="u">
          5.11819776e-02 5.15864173e-02 5.15864173e-02 5.11819776e-02 3.32445998e-02 3.35019643e-02 3.35019643e-02 3.32445998e-02 1.67588056e-02 1.68856888e-02 1.68856888e-02 1.67588056e-02 7.99688329e-04 8.05950366e-04 8.05950366e-04 7.99688329e-04 
        </DataArray>
        <DataArray type="Float64" Name="Q">
          0.00000000e+00 0.00000000e+00 0.00000000e+00 0.00000000e+00 0.00000000e+00 0.00000000e+00 0.00000000e+00 0.00000000e+00 0.00000000e+00 0.00000000e+00 0.00000000e+00 0.00000000e+00 0.00000000e+00 0.00000000e+00 0.00000000e+00 0.00000000e+00 
        </DataArray>
      </PointData>
    </Piece>
    <Piece NumberOfPoints="16" NumberOfCells="9">
      <Points>
        <DataArray type="Float64" NumberOfComponents="3" format="ascii">
          3.60000000e+01 4.42655983e+01 1.19999997e-01 
3.60000000e+01 4.42151985e+01 1.19999997e-01 
3.60000000e+01 4.41647987e+01 1.19999997e-01 
3.60000000e+01 4.41143990e+01 1.19999997e-01 
3.60000000e+01 4.42655983e+01 9.66666639e-02 
3.60000000e+01 4.42151985e+01 9.66666639e-02 
3.60000000e+01 4.41647987e+01 9.66666639e-02 
3.60000000e+01 4.41143990e+01 9.66666639e-02 
3.60000000e+01 4.42655983e+01 7.33333305e-02 
3.60000000e+01 4.42151985e+01 7.33333305e-02 
3.60000000e+01 4.41647987e+01 7.33333305e-02 
3.60000000e+01 4.41143990e+01 7.33333305e-02 
3.60000000e+01 4.42655983e+01 5.00000007e-02 
3.60000000e+01 4.42151985e+01 5.00000007e-02 
3.60000000e+01 4.41647987e+01 5.00000007e-02 
3.60000000e+01 4.41143990e+01 5.00000007e-02 

        </DataArray>
      </Points>
      <Cells>
        <DataArray type="Int32" Name="connectivity" format="ascii">
0 1 5 4
4 5 9 8
8 9 13 12
1 2 6 5
5 6 10 9
9 10 14 13
2 3 7 6
6 7 11 10
10 11 15 14

        </DataArray>
        <DataArray type="Int32" Name="offsets" format="ascii">
4 8 12 16 20 24 28 32 36 
        </DataArray>
        <DataArray type="UInt8" Name="types" format="ascii">
9 9 9 9 9 9 9 9 9 
        </DataArray>
      </Cells>
      <PointData>
        <DataArray type="Float64" Name="u">
          1.07281415e-01 1.08192255e-01 1.08192255e-01 1.07281415e-01 8.96484014e-02 9.03921981e-02 9.03921981e-02 8.96484014e-02 6.84923289e-02 6.90461051e-02 6.90461051e-02 6.84923289e-02 4.98038823e-02 5.01973441e-02 5.01973441e-02 4.98038823e-02 
        </DataArray>
        <DataArray type="Float64" Name="Q">
          0.00000000e+00 0.00000000e+00 0.00000000e+00 0.00000000e+00 0.00000000e+00 0.00000000e+00 0.00000000e+00 0.00000000e+00 0.00000000e+00 0.00000000e+00 0.00000000e+00 0.00000000e+00 0.00000000e+00 0.00000000e+00 0.00000000e+00 0.00000000e+00 
        </DataArray>
      </PointData>
    </Piece>
    <Piece NumberOfPoints="16" NumberOfCells="9">
      <Points>
        <DataArray type="Float64" NumberOfComponents="3" format="ascii">
          3.60000000e+01 4.42655983e+01 2.17999995e-01 
3.60000000e+01 4.42151985e+01 2.17999995e-01 
3.60000000e+01 4.41647987e+01 2.17999995e-01 
3.60000000e+01 4.41143990e+01 2.17999995e-01 
3.60000000e+01 4.42655983e+01 1.85333326e-01 
3.60000000e+01 4.42151985e+01 1.85333326e-01 
3.60000000e+01 4.41647987e+01 1.85333326e-01 
3.60000000e+01 4.41143990e+01 1.85333326e-01 
3.60000000e+01 4.42655983e+01 1.52666673e-01 
3.60000000e+01 4.42151985e+01 1.52666673e-01 
3.60000000e+01 4.41647987e+01 1.52666673e-01 
3.60000000e+01 4.41143990e+01 1.52666673e-01 
3.60000000e+01 4.42655983e+01 1.19999997e-01 
3.60000000e+01 4.42151985e+01 1.19999997e-01 
3.60000000e+01 4.41647987e+01 1.19999997e-01 
3.60000000e+01 4.41143990e+01 1.19999997e-01 

        </DataArray>
      </Points>
      <Cells>
        <DataArray type="Int32" Name="connectivity" format="ascii">
0 1 5 4
4 5 9 8
8 9 13 12
1 2 6 5
5 6 10 9
9 10 14 13
2 3 7 6
6 7 11 10
10 11 15 14

        </DataArray>
        <DataArray type="Int32" Name="offsets" format="ascii">
4 8 12 16 20 24 28 32 36 
        </DataArray>
        <DataArray type="UInt8" Name="types" format="ascii">
9 9 9 9 9 9 9 9 9 
        </DataArray>
      </Cells>
      <PointData>
        <DataArray type="Float64" Name="u">
          1.68188855e-01 1.69727771e-01 1.69727771e-01 1.68188855e-01 1.50698085e-01 1.52046725e-01 1.52046725e-01 1.50698085e-01 1.30070972e-01 1.31206187e-01 1.31206187e-01 1.30070972e-01 1.06959312e-01 1.07865594e-01 1.07865594e-01 1.06959312e-01 
        </DataArray>
        <DataArray type="Float64" Name="Q">
          0.00000000e+00 0.00000000e+00 0.00000000e+00 0.00000000e+00 0.00000000e+00 0.00000000e+00 0.00000000e+00 0.00000000e+00 0.00000000e+00 0.00000000e+00 0.00000000e+00 0.00000000e+00 0.00000000e+00 0.00000000e+00 0.00000000e+00 0.00000000e+00 
        </DataArray>
      </PointData>
    </Piece>
    <Piece NumberOfPoints="16" NumberOfCells="9">
      <Points>
        <DataArray type="Float64" NumberOfComponents="3" format="ascii">
          3.60000000e+01 4.42655983e+01 3.55199993e-01 
3.60000000e+01 4.42151985e+01 3.55199993e-01 
3.60000000e+01 4.41647987e+01 3.55199993e-01 
3.60000000e+01 4.41143990e+01 3.55199993e-01 
3.60000000e+01 4.42655983e+01 3.09466660e-01 
3.60000000e+01 4.42151985e+01 3.09466660e-01 
3.60000000e+01 4.41647987e+01 3.09466660e-01 
3.60000000e+01 4.41143990e+01 3.09466660e-01 
3.60000000e+01 4.42655983e+01 2.63733327e-01 
3.60000000e+01 4.42151985e+01 2.63733327e-01 
3.60000000e+01 4.41647987e+01 2.63733327e-01 
3.60000000e+01 4.41143990e+01 2.63733327e-01 
3.60000000e+01 4.42655983e+01 2.17999995e-01 
3.60000000e+01 4.42151985e+01 2.17999995e-01 
3.60000000e+01 4.41647987e+01 2.17999995e-01 
3.60000000e+01 4.41143990e+01 2.17999995e-01 

        </DataArray>
      </Points>
      <Cells>
        <DataArray type="Int32" Name="connectivity" format="ascii">
0 1 5 4
4 5 9 8
8 9 13 12
1 2 6 5
5 6 10 9
9 10 14 13
2 3 7 6
6 7 11 10
10 11 15 14

        </DataArray>
        <DataArray type="Int32" Name="offsets" format="ascii">
4 8 12 16 20 24 28 32 36 
        </DataArray>
        <DataArray type="UInt8" Name="types" format="ascii">
9 9 9 9 9 9 9 9 9 
        </DataArray>
      </Cells>
      <PointData>
        <DataArray type="Float64" Name="u">
          2.22018505e-01 2.24186490e-01 2.24186490e-01 2.22018505e-01 2.08745840e-01 2.10751823e-01 2.10751823e-01 2.08745840e-01 1.91504844e-01 1.93307112e-01 1.93307112e-01 1.91504844e-01 1.68834293e-01 1.70379288e-01 1.70379288e-01 1.68834293e-01 
        </DataArray>
        <DataArray type="Float64" Name="Q">
          0.00000000e+00 0.00000000e+00 0.00000000e+00 0.00000000e+00 0.00000000e+00 0.00000000e+00 0.00000000e+00 0.00000000e+00 0.00000000e+00 0.00000000e+00 0.00000000e+00 0.00000000e+00 0.00000000e+00 0.00000000e+00 0.00000000e+00 0.00000000e+00 
        </DataArray>
      </PointData>
    </Piece>
    <Piece NumberOfPoints="16" NumberOfCells="9">
      <Points>
        <DataArray type="Float64" NumberOfComponents="3" format="ascii">
          3.60000000e+01 4.42655983e+01 5.00000000e-01 
3.60000000e+01 4.42151985e+01 5.00000000e-01 
3.60000000e+01 4.41647987e+01 5.00000000e-01 
3.60000000e+01 4.41143990e+01 5.00000000e-01 
3.60000000e+01 4.42655983e+01 4.51733321e-01 
3.60000000e+01 4.42151985e+01 4.51733321e-01 
3.60000000e+01 4.41647987e+01 4.51733321e-01 
3.60000000e+01 4.41143990e+01 4.51733321e-01 
3.60000000e+01 4.42655983e+01 4.03466672e-01 
3.60000000e+01 4.42151985e+01 4.03466672e-01 
3.60000000e+01 4.41647987e+01 4.03466672e-01 
3.60000000e+01 4.41143990e+01 4.03466672e-01 
3.60000000e+01 4.42655983e+01 3.55199993e-01 
3.60000000e+01 4.42151985e+01 3.55199993e-01 
3.60000000e+01 4.41647987e+01 3.55199993e-01 
3.60000000e+01 4.41143990e+01 3.55199993e-01 

        </DataArray>
      </Points>
      <Cells>
        <DataArray type="Int32" Name="connectivity" format="ascii">
0 1 5 4
4 5 9 8
8 9 13 12
1 2 6 5
5 6 10 9
9 10 14 13
2 3 7 6
6 7 11 10
10 11 15 14

        </DataArray>
        <DataArray type="Int32" Name="offsets" format="ascii">
4 8 12 16 20 24 28 32 36 
        </DataArray>
        <DataArray type="UInt8" Name="types" format="ascii">
9 9 9 9 9 9 9 9 9 
        </DataArray>
      </Cells>
      <PointData>
        <DataArray type="Float64" Name="u">
          2.40910262e-01 2.43316465e-01 2.43316465e-01 2.40910262e-01 2.38973792e-01 2.41355191e-01 2.41355191e-01 2.38973792e-01 2.32585158e-01 2.34885322e-01 2.34885322e-01 2.32585158e-01 2.22206186e-01 2.24376462e-01 2.24376462e-01 2.22206186e-01 
        </DataArray>
        <DataArray type="Float64" Name="Q">
          0.00000000e+00 0.00000000e+00 0.00000000e+00 0.00000000e+00 0.00000000e+00 0.00000000e+00 0.00000000e+00 0.00000000e+00 0.00000000e+00 0.00000000e+00 0.00000000e+00 0.00000000e+00 0.00000000e+00 0.00000000e+00 0.00000000e+00 0.00000000e+00 
        </DataArray>
      </PointData>
    </Piece>
    <Piece NumberOfPoints="16" NumberOfCells="9">
      <Points>
        <DataArray type="Float64" NumberOfComponents="3" format="ascii">
          3.60000000e+01 4.42655983e+01 6.44800007e-01 
3.60000000e+01 4.42151985e+01 6.44800007e-01 
3.60000000e+01 4.41647987e+01 6.44800007e-01 
3.60000000e+01 4.41143990e+01 6.44800007e-01 
3.60000000e+01 4.42655983e+01 5.96533358e-01 
3.60000000e+01 4.42151985e+01 5.96533358e-01 
3.60000000e+01 4.41647987e+01 5.96533358e-01 
3.60000000e+01 4.41143990e+01 5.96533358e-01 
3.60000000e+01 4.42655983e+01 5.48266649e-01 
3.60000000e+01 4.42151985e+01 5.48266649e-01 
3.60000000e+01 4.41647987e+01 5.48266649e-01 
3.60000000e+01 4.41143990e+01 5.48266649e-01 
3.60000000e+01 4.42655983e+01 5.00000000e-01 
3.60000000e+01 4.42151985e+01 5.00000000e-01 
3.60000000e+01 4.41647987e+01 5.00000000e-01 
3.60000000e+01 4.41143990e+01 5.00000000e-01 

        </DataArray>
      </Points>
      <Cells>
        <DataArray type="Int32" Name="connectivity" format="ascii">
0 1 5 4
4 5 9 8
8 9 13 12
1 2 6 5
5 6 10 9
9 10 14 13
2 3 7 6
6 7 11 10
10 11 15 14

        </DataArray>
        <DataArray type="Int32" Name="offsets" format="ascii">
4 8 12 16 20 24 28 32 36 
        </DataArray>
        <DataArray type="UInt8" Name="types" format="ascii">
9 9 9 9 9 9 9 9 9 
        </DataArray>
      </Cells>
      <PointData>
        <DataArray type="Float64" Name="u">
          2.22206186e-01 2.24376462e-01 2.24376462e-01 2.22206186e-01 2.32585158e-01 2.34885322e-01 2.34885322e-01 2.32585158e-01 2.38973792e-01 2.41355191e-01 2.41355191e-01 2.38973792e-01 2.40910262e-01 2.43316465e-01 2.43316465e-01 2.40910262e-01 
        </DataArray>
        <DataArray type="Float64" Name="Q">
          0.00000000e+00 0.00000000e+00 0.00000000e+00 0.00000000e+00 0.00000000e+00 0.00000000e+00 0.00000000e+00 0.00000000e+00 0.00000000e+00 0.00000000e+00 0.00000000e+00 0.00000000e+00 0.00000000e+00 0.00000000e+00 0.00000000e+00 0.00000000e+00 
        </DataArray>
      </PointData>
    </Piece>
    <Piece NumberOfPoints="16" NumberOfCells="9">
      <Points>
        <DataArray type="Float64" NumberOfComponents="3" format="ascii">
          3.60000000e+01 4.42655983e+01 7.82000005e-01 
3.60000000e+01 4.42151985e+01 7.82000005e-01 
3.60000000e+01 4.41647987e+01 7.82000005e-01 
3.60000000e+01 4.41143990e+01 7.82000005e-01 
3.60000000e+01 4.42655983e+01 7.36266673e-01 
3.60000000e+01 4.42151985e+01 7.36266673e-01 
3.60000000e+01 4.41647987e+01 7.36266673e-01 
3.60000000e+01 4.41143990e+01 7.36266673e-01 
3.60000000e+01 4.42655983e+01 6.90533340e-01 
3.60000000e+01 4.42151985e+01 6.90533340e-01 
3.60000000e+01 4.41647987e+01 6.90533340e-01 
3.60000000e+01 4.41143990e+01 6.90533340e-01 
3.60000000e+01 4.42655983e+01 6.44800007e-01 
3.60000000e+01 4.42151985e+01 6.44800007e-01 
3.60000000e+01 4.41647987e+01 6.44800007e-01 
3.60000000e+01 4.41143990e+01 6.44800007e-01 

        </DataArray>
      </Points>
      <Cells>
        <DataArray type="Int32" Name="connectivity" format="ascii">
0 1 5 4
4 5 9 8
8 9 13 12
1 2 6 5
5 6 10 9
9 10 14 13
2 3 7 6
6 7 11 10
10 11 15 14

        </DataArray>
        <DataArray type="Int32" Name="offsets" format="ascii">
4 8 12 16 20 24 28 32 36 
        </DataArray>
        <DataArray type="UInt8" Name="types" format="ascii">
9 9 9 9 9 9 9 9 9 
        </DataArray>
      </Cells>
      <PointData>
        <DataArray type="Float64" Name="u">
          1.68834293e-01 1.70379288e-01 1.70379288e-01 1.68834293e-01 1.91504844e-01 1.93307112e-01 1.93307112e-01 1.91504844e-01 2.08745840e-01 2.10751823e-01 2.10751823e-01 2.08745840e-01 2.22018505e-01 2.24186490e-01 2.24186490e-01 2.22018505e-01 
        </DataArray>
        <DataArray type="Float64" Name="Q">
          0.00000000e+00 0.00000000e+00 0.00000000e+00 0.00000000e+00 0.00000000e+00 0.00000000e+00 0.00000000e+00 0.00000000e+00 0.00000000e+00 0.00000000e+00 0.00000000e+00 0.00000000e+00 0.00000000e+00 0.00000000e+00 0.00000000e+00 0.00000000e+00 
        </DataArray>
      </PointData>
    </Piece>
    <Piece NumberOfPoints="16" NumberOfCells="9">
      <Points>
        <DataArray type="Float64" NumberOfComponents="3" format="ascii">
          3.60000000e+01 4.42655983e+01 8.79999995e-01 
3.60000000e+01 4.42151985e+01 8.79999995e-01 
3.60000000e+01 4.41647987e+01 8.79999995e-01 
3.60000000e+01 4.41143990e+01 8.79999995e-01 
3.60000000e+01 4.42655983e+01 8.47333312e-01 
3.60000000e+01 4.42151985e+01 8.47333312e-01 
3.60000000e+01 4.41647987e+01 8.47333312e-01 
3.60000000e+01 4.41143990e+01 8.47333312e-01 
3.60000000e+01 4.42655983e+01 8.14666688e-01 
3.60000000e+01 4.42151985e+01 8.14666688e-01 
3.60000000e+01 4.41647987e+01 8.14666688e-01 
3.60000000e+01 4.41143990e+01 8.14666688e-01 
3.60000000e+01 4.42655983e+01 7.82000005e-01 
3.60000000e+01 4.42151985e+01 7.82000005e-01 
3.60000000e+01 4.41647987e+01 7.82000005e-01 
3.60000000e+01 4.41143990e+01 7.82000005e-01 

        </DataArray>
      </Points>
      <Cells>
        <DataArray type="Int32" Name="connectivity" format="ascii">
0 1 5 4
4 5 9 8
8 9 13 12
1 2 6 5
5 6 10 9
9 10 14 13
2 3 7 6
6 7 11 10
10 11 15 14

        </DataArray>
        <DataArray type="Int32" Name="offsets" format="ascii">
4 8 12 16 20 24 28 32 36 
        </DataArray>
        <DataArray type="UInt8" Name="types" format="ascii">
9 9 9 9 9 9 9 9 9 
        </DataArray>
      </Cells>
      <PointData>
        <DataArray type="Float64" Name="u">
          1.06959312e-01 1.07865594e-01 1.07865594e-01 1.06959312e-01 1.30070972e-01 1.31206187e-01 1.31206187e-01 1.30070972e-01 1.50698085e-01 1.52046725e-01 1.52046725e-01 1.50698085e-01 1.68188855e-01 1.69727771e-01 1.69727771e-01 1.68188855e-01 
        </DataArray>
        <DataArray type="Float64" Name="Q">
          0.00000000e+00 0.00000000e+00 0.00000000e+00 0.00000000e+00 0.00000000e+00 0.00000000e+00 0.00000000e+00 0.00000000e+00 0.00000000e+00 0.00000000e+00 0.00000000e+00 0.00000000e+00 0.00000000e+00 0.00000000e+00 0.00000000e+00 0.00000000e+00 
        </DataArray>
      </PointData>
    </Piece>
    <Piece NumberOfPoints="16" NumberOfCells="9">
      <Points>
        <DataArray type="Float64" NumberOfComponents="3" format="ascii">
          3.60000000e+01 4.42655983e+01 9.49999988e-01 
3.60000000e+01 4.42151985e+01 9.49999988e-01 
3.60000000e+01 4.41647987e+01 9.49999988e-01 
3.60000000e+01 4.41143990e+01 9.49999988e-01 
3.60000000e+01 4.42655983e+01 9.26666677e-01 
3.60000000e+01 4.42151985e+01 9.26666677e-01 
3.60000000e+01 4.41647987e+01 9.26666677e-01 
3.60000000e+01 4.41143990e+01 9.26666677e-01 
3.60000000e+01 4.42655983e+01 9.03333306e-01 
3.60000000e+01 4.42151985e+01 9.03333306e-01 
3.60000000e+01 4.41647987e+01 9.03333306e-01 
3.60000000e+01 4.41143990e+01 9.03333306e-01 
3.60000000e+01 4.42655983e+01 8.79999995e-01 
3.60000000e+01 4.42151985e+01 8.79999995e-01 
3.60000000e+01 4.41647987e+01 8.79999995e-01 
3.60000000e+01 4.41143990e+01 8.79999995e-01 

        </DataArray>
      </Points>
      <Cells>
        <DataArray type="Int32" Name="connectivity" format="ascii">
0 1 5 4
4 5 9 8
8 9 13 12
1 2 6 5
5 6 10 9
9 10 14 13
2 3 7 6
6 7 11 10
10 11 15 14

        </DataArray>
        <DataArray type="Int32" Name="offsets" format="ascii">
4 8 12 16 20 24 28 32 36 
        </DataArray>
        <DataArray type="UInt8" Name="types" format="ascii">
9 9 9 9 9 9 9 9 9 
        </DataArray>
      </Cells>
      <PointData>
        <DataArray type="Float64" Name="u">
          4.77226214e-02 4.92723393e-02 4.92723393e-02 4.77226214e-02 6.88199348e-02 6.91917077e-02 6.91917077e-02 6.88199348e-02 8.94942339e-02 9.03236792e-02 9.03236792e-02 8.94942339e-02 1.07801730e-01 1.08423506e-01 1.08423506e-01 1.07801730e-01 
        </DataArray>
        <DataArray type="Float64" Name="Q">
          0.00000000e+00 0.00000000e+00 0.00000000e+00 0.00000000e+00 0.00000000e+00 0.00000000e+00 0.00000000e+00 0.00000000e+00 0.00000000e+00 0.00000000e+00 0.00000000e+00 0.00000000e+00 0.00000000e+00 0.00000000e+00 0.00000000e+00 0.00000000e+00 
        </DataArray>
      </PointData>
    </Piece>
    <Piece NumberOfPoints="16" NumberOfCells="9">
      <Points>
        <DataArray type="Float64" NumberOfComponents="3" format="ascii">
          3.60000000e+01 4.42655983e+01 1.00000000e+00 
3.60000000e+01 4.42151985e+01 1.00000000e+00 
3.60000000e+01 4.41647987e+01 1.00000000e+00 
3.60000000e+01 4.41143990e+01 1.00000000e+00 
3.60000000e+01 4.42655983e+01 9.83333349e-01 
3.60000000e+01 4.42151985e+01 9.83333349e-01 
3.60000000e+01 4.41647987e+01 9.83333349e-01 
3.60000000e+01 4.41143990e+01 9.83333349e-01 
3.60000000e+01 4.42655983e+01 9.66666639e-01 
3.60000000e+01 4.42151985e+01 9.66666639e-01 
3.60000000e+01 4.41647987e+01 9.66666639e-01 
3.60000000e+01 4.41143990e+01 9.66666639e-01 
3.60000000e+01 4.42655983e+01 9.49999988e-01 
3.60000000e+01 4.42151985e+01 9.49999988e-01 
3.60000000e+01 4.41647987e+01 9.49999988e-01 
3.60000000e+01 4.41143990e+01 9.49999988e-01 

        </DataArray>
      </Points>
      <Cells>
        <DataArray type="Int32" Name="connectivity" format="ascii">
0 1 5 4
4 5 9 8
8 9 13 12
1 2 6 5
5 6 10 9
9 10 14 13
2 3 7 6
6 7 11 10
10 11 15 14

        </DataArray>
        <DataArray type="Int32" Name="offsets" format="ascii">
4 8 12 16 20 24 28 32 36 
        </DataArray>
        <DataArray type="UInt8" Name="types" format="ascii">
9 9 9 9 9 9 9 9 9 
        </DataArray>
      </Cells>
      <PointData>
        <DataArray type="Float64" Name="u">
          1.32000355e-03 1.03720158e-03 1.03720158e-03 1.32000355e-03 1.66046381e-02 1.68171700e-02 1.68171700e-02 1.66046381e-02 3.35722057e-02 3.36475669e-02 3.36475669e-02 3.35722057e-02 4.91007167e-02 5.06614125e-02 5.06614125e-02 4.91007167e-02 
        </DataArray>
        <DataArray type="Float64" Name="Q">
          0.00000000e+00 0.00000000e+00 0.00000000e+00 0.00000000e+00 0.00000000e+00 0.00000000e+00 0.00000000e+00 0.00000000e+00 0.00000000e+00 0.00000000e+00 0.00000000e+00 0.00000000e+00 0.00000000e+00 0.00000000e+00 0.00000000e+00 0.00000000e+00 
        </DataArray>
      </PointData>
    </Piece>
    <Piece NumberOfPoints="16" NumberOfCells="9">
      <Points>
        <DataArray type="Float64" NumberOfComponents="3" format="ascii">
          3.60000000e+01 4.41143990e+01 5.00000007e-02 
3.60000000e+01 4.40639992e+01 5.00000007e-02 
3.60000000e+01 4.40135994e+01 5.00000007e-02 
3.60000000e+01 4.39631996e+01 5.00000007e-02 
3.60000000e+01 4.41143990e+01 3.33333351e-02 
3.60000000e+01 4.40639992e+01 3.33333351e-02 
3.60000000e+01 4.40135994e+01 3.33333351e-02 
3.60000000e+01 4.39631996e+01 3.33333351e-02 
3.60000000e+01 4.41143990e+01 1.66666675e-02 
3.60000000e+01 4.40639992e+01 1.66666675e-02 
3.60000000e+01 4.40135994e+01 1.66666675e-02 
3.60000000e+01 4.39631996e+01 1.66666675e-02 
3.60000000e+01 4.41143990e+01 0.00000000e+00 
3.60000000e+01 4.40639992e+01 0.00000000e+00 
3.60000000e+01 4.40135994e+01 0.00000000e+00 
3.60000000e+01 4.39631996e+01 0.00000000e+00 

        </DataArray>
      </Points>
      <Cells>
        <DataArray type="Int32" Name="connectivity" format="ascii">
0 1 5 4
4 5 9 8
8 9 13 12
1 2 6 5
5 6 10 9
9 10 14 13
2 3 7 6
6 7 11 10
10 11 15 14

        </DataArray>
        <DataArray type="Int32" Name="offsets" format="ascii">
4 8 12 16 20 24 28 32 36 
        </DataArray>
        <DataArray type="UInt8" Name="types" format="ascii">
9 9 9 9 9 9 9 9 9 
        </DataArray>
      </Cells>
      <PointData>
        <DataArray type="Float64" Name="u">
          5.11526580e-02 5.03568019e-02 4.90746755e-02 4.74561133e-02 3.32259387e-02 3.27194740e-02 3.19034806e-02 3.08732390e-02 1.67496044e-02 1.64999050e-02 1.60975763e-02 1.55895715e-02 7.99234294e-04 7.86911399e-04 7.67057637e-04 7.41991617e-04 
        </DataArray>
        <DataArray type="Float64" Name="Q">
          0.00000000e+00 0.00000000e+00 0.00000000e+00 0.00000000e+00 0.00000000e+00 0.00000000e+00 0.00000000e+00 0.00000000e+00 0.00000000e+00 0.00000000e+00 0.00000000e+00 0.00000000e+00 0.00000000e+00 0.00000000e+00 0.00000000e+00 0.00000000e+00 
        </DataArray>
      </PointData>
    </Piece>
    <Piece NumberOfPoints="16" NumberOfCells="9">
      <Points>
        <DataArray type="Float64" NumberOfComponents="3" format="ascii">
          3.60000000e+01 4.41143990e+01 1.19999997e-01 
3.60000000e+01 4.40639992e+01 1.19999997e-01 
3.60000000e+01 4.40135994e+01 1.19999997e-01 
3.60000000e+01 4.39631996e+01 1.19999997e-01 
3.60000000e+01 4.41143990e+01 9.66666639e-02 
3.60000000e+01 4.40639992e+01 9.66666639e-02 
3.60000000e+01 4.40135994e+01 9.66666639e-02 
3.60000000e+01 4.39631996e+01 9.66666639e-02 
3.60000000e+01 4.41143990e+01 7.33333305e-02 
3.60000000e+01 4.40639992e+01 7.33333305e-02 
3.60000000e+01 4.40135994e+01 7.33333305e-02 
3.60000000e+01 4.39631996e+01 7.33333305e-02 
3.60000000e+01 4.41143990e+01 5.00000007e-02 
3.60000000e+01 4.40639992e+01 5.00000007e-02 
3.60000000e+01 4.40135994e+01 5.00000007e-02 
3.60000000e+01 4.39631996e+01 5.00000007e-02 

        </DataArray>
      </Points>
      <Cells>
        <DataArray type="Int32" Name="connectivity" format="ascii">
0 1 5 4
4 5 9 8
8 9 13 12
1 2 6 5
5 6 10 9
9 10 14 13
2 3 7 6
6 7 11 10
10 11 15 14

        </DataArray>
        <DataArray type="Int32" Name="offsets" format="ascii">
4 8 12 16 20 24 28 32 36 
        </DataArray>
        <DataArray type="UInt8" Name="types" format="ascii">
9 9 9 9 9 9 9 9 9 
        </DataArray>
      </Cells>
      <PointData>
        <DataArray type="Float64" Name="u">
          1.07215482e-01 1.05423756e-01 1.02539370e-01 9.89015442e-02 8.95945263e-02 8.81311783e-02 8.57747058e-02 8.28015074e-02 6.84521964e-02 6.73625606e-02 6.56074379e-02 6.33922310e-02 4.97753587e-02 4.90011062e-02 4.77537885e-02 4.61791775e-02 
        </DataArray>
        <DataArray type="Float64" Name="Q">
          0.00000000e+00 0.00000000e+00 0.00000000e+00 0.00000000e+00 0.00000000e+00 0.00000000e+00 0.00000000e+00 0.00000000e+00 0.00000000e+00 0.00000000e+00 0.00000000e+00 0.00000000e+00 0.00000000e+00 0.00000000e+00 0.00000000e+00 0.00000000e+00 
        </DataArray>
      </PointData>
    </Piece>
    <Piece NumberOfPoints="16" NumberOfCells="9">
      <Points>
        <DataArray type="Float64" NumberOfComponents="3" format="ascii">
          3.60000000e+01 4.41143990e+01 2.17999995e-01 
3.60000000e+01 4.40639992e+01 2.17999995e-01 
3.60000000e+01 4.40135994e+01 2.17999995e-01 
3.60000000e+01 4.39631996e+01 2.17999995e-01 
3.60000000e+01 4.41143990e+01 1.85333326e-01 
3.60000000e+01 4.40639992e+01 1.85333326e-01 
3.60000000e+01 4.40135994e+01 1.85333326e-01 
3.60000000e+01 4.39631996e+01 1.85333326e-01 
3.60000000e+01 4.41143990e+01 1.52666673e-01 
3.60000000e+01 4.40639992e+01 1.52666673e-01 
3.60000000e+01 4.40135994e+01 1.52666673e-01 
3.60000000e+01 4.39631996e+01 1.52666673e-01 
3.60000000e+01 4.41143990e+01 1.19999997e-01 
3.60000000e+01 4.40639992e+01 1.19999997e-01 
3.60000000e+01 4.40135994e+01 1.19999997e-01 
3.60000000e+01 4.39631996e+01 1.19999997e-01 

        </DataArray>
      </Points>
      <Cells>
        <DataArray type="Int32" Name="connectivity" format="ascii">
0 1 5 4
4 5 9 8
8 9 13 12
1 2 6 5
5 6 10 9
9 10 14 13
2 3 7 6
6 7 11 10
10 11 15 14

        </DataArray>
        <DataArray type="Int32" Name="offsets" format="ascii">
4 8 12 16 20 24 28 32 36 
        </DataArray>
        <DataArray type="UInt8" Name="types" format="ascii">
9 9 9 9 9 9 9 9 9 
        </DataArray>
      </Cells>
      <PointData>
        <DataArray type="Float64" Name="u">
          1.68077833e-01 1.65052913e-01 1.60190949e-01 1.54071339e-01 1.50600668e-01 1.47949018e-01 1.43684558e-01 1.38313073e-01 1.29988879e-01 1.27756290e-01 1.24163878e-01 1.19635831e-01 1.06893704e-01 1.05110909e-01 1.02240782e-01 9.86207438e-02 
        </DataArray>
        <DataArray type="Float64" Name="Q">
          0.00000000e+00 0.00000000e+00 0.00000000e+00 0.00000000e+00 0.00000000e+00 0.00000000e+00 0.00000000e+00 0.00000000e+00 0.00000000e+00 0.00000000e+00 0.00000000e+00 0.00000000e+00 0.00000000e+00 0.00000000e+00 0.00000000e+00 0.00000000e+00 
        </DataArray>
      </PointData>
    </Piece>
    <Piece NumberOfPoints="16" NumberOfCells="9">
      <Points>
        <DataArray type="Float64" NumberOfComponents="3" format="ascii">
          3.60000000e+01 4.41143990e+01 3.55199993e-01 
3.60000000e+01 4.40639992e+01 3.55199993e-01 
3.60000000e+01 4.40135994e+01 3.55199993e-01 
3.60000000e+01 4.39631996e+01 3.55199993e-01 
3.60000000e+01 4.41143990e+01 3.09466660e-01 
3.60000000e+01 4.40639992e+01 3.09466660e-01 
3.60000000e+01 4.40135994e+01 3.09466660e-01 
3.60000000e+01 4.39631996e+01 3.09466660e-01 
3.60000000e+01 4.41143990e+01 2.63733327e-01 
3.60000000e+01 4.40639992e+01 2.63733327e-01 
3.60000000e+01 4.40135994e+01 2.63733327e-01 
3.60000000e+01 4.39631996e+01 2.63733327e-01 
3.60000000e+01 4.41143990e+01 2.17999995e-01 
3.60000000e+01 4.40639992e+01 2.17999995e-01 
3.60000000e+01 4.40135994e+01 2.17999995e-01 
3.60000000e+01 4.39631996e+01 2.17999995e-01 

        </DataArray>
      </Points>
      <Cells>
        <DataArray type="Int32" Name="connectivity" format="ascii">
0 1 5 4
4 5 9 8
8 9 13 12
1 2 6 5
5 6 10 9
9 10 14 13
2 3 7 6
6 7 11 10
10 11 15 14

        </DataArray>
        <DataArray type="Int32" Name="offsets" format="ascii">
4 8 12 16 20 24 28 32 36 
        </DataArray>
        <DataArray type="UInt8" Name="types" format="ascii">
9 9 9 9 9 9 9 9 9 
        </DataArray>
      </Cells>
      <PointData>
        <DataArray type="Float64" Name="u">
          2.21862890e-01 2.17606070e-01 2.10779331e-01 2.02210668e-01 2.08601640e-01 2.04661688e-01 1.98339074e-01 1.90396894e-01 1.91375069e-01 1.87833960e-01 1.82147174e-01 1.74997078e-01 1.68722831e-01 1.65685949e-01 1.60804719e-01 1.54660799e-01 
        </DataArray>
        <DataArray type="Float64" Name="Q">
          0.00000000e+00 0.00000000e+00 0.00000000e+00 0.00000000e+00 0.00000000e+00 0.00000000e+00 0.00000000e+00 0.00000000e+00 0.00000000e+00 0.00000000e+00 0.00000000e+00 0.00000000e+00 0.00000000e+00 0.00000000e+00 0.00000000e+00 0.00000000e+00 
        </DataArray>
      </PointData>
    </Piece>
    <Piece NumberOfPoints="16" NumberOfCells="9">
      <Points>
        <DataArray type="Float64" NumberOfComponents="3" format="ascii">
          3.60000000e+01 4.41143990e+01 5.00000000e-01 
3.60000000e+01 4.40639992e+01 5.00000000e-01 
3.60000000e+01 4.40135994e+01 5.00000000e-01 
3.60000000e+01 4.39631996e+01 5.00000000e-01 
3.60000000e+01 4.41143990e+01 4.51733321e-01 
3.60000000e+01 4.40639992e+01 4.51733321e-01 
3.60000000e+01 4.40135994e+01 4.51733321e-01 
3.60000000e+01 4.39631996e+01 4.51733321e-01 
3.60000000e+01 4.41143990e+01 4.03466672e-01 
3.60000000e+01 4.40639992e+01 4.03466672e-01 
3.60000000e+01 4.40135994e+01 4.03466672e-01 
3.60000000e+01 4.39631996e+01 4.03466672e-01 
3.60000000e+01 4.41143990e+01 3.55199993e-01 
3.60000000e+01 4.40639992e+01 3.55199993e-01 
3.60000000e+01 4.40135994e+01 3.55199993e-01 
3.60000000e+01 4.39631996e+01 3.55199993e-01 

        </DataArray>
      </Points>
      <Cells>
        <DataArray type="Int32" Name="connectivity" format="ascii">
0 1 5 4
4 5 9 8
8 9 13 12
1 2 6 5
5 6 10 9
9 10 14 13
2 3 7 6
6 7 11 10
10 11 15 14

        </DataArray>
        <DataArray type="Int32" Name="offsets" format="ascii">
4 8 12 16 20 24 28 32 36 
        </DataArray>
        <DataArray type="UInt8" Name="types" format="ascii">
9 9 9 9 9 9 9 9 9 
        </DataArray>
      </Cells>
      <PointData>
        <DataArray type="Float64" Name="u">